Created on Thu Sep 21 23:45:47 2023 

          88 atoms
         112 bonds
         228 angles
         208 dihedrals
          48 impropers

           6 atom types
           8 bond types
          13 angle types
           3 dihedral types
           1 improper types
           0.000000  13.923300 xlo xhi
           0.000000  17.247900 ylo yhi
           0.000000   6.872310 zlo zhi
          -0.000843  -0.000096   0.000288 xy xz yz

Masses

    1    55.845000000 # Fe6+3
    2    12.010700000 # C_1
    3    12.010700000 # C_2
    4    12.010700000 # C_3
    5    14.006700000 # N_2
    6    14.006700000 # N_1

Bond Coeffs

    1      272.258681        1.960888  # Fe6+3 N_2
    2      408.240118        1.438000  # C_1 C_2
    3      607.496018        1.385350  # C_1 N_2
    4      517.346067        1.328833  # C_2 C_2
    5      367.712375        1.489000  # C_2 C_3
    6      611.460775        1.382349  # C_2 N_1
    7      349.795899        1.514000  # C_3 C_3
    8      387.667471        1.463000  # C_1 C_3

Angle Coeffs

    1              cosine/periodic      151.160679               1               4 # N_2 Fe6+3 N_2
    2              cosine/periodic       71.767464               1               1 # C_2 C_1 N_2
    3              cosine/periodic       98.207309              -1               3 # C_1 C_2 C_1
    4              cosine/periodic      110.073494              -1               3 # C_1 C_2 C_2
    5              cosine/periodic       88.457850              -1               3 # C_3 C_2 C_3
    6              cosine/periodic      131.069885              -1               3 # C_3 C_2 N_1
    7                      fourier      225.183707        0.343737        0.374972        0.281246 # C_2 C_3 C_2
    8                      fourier      219.577892        0.343737        0.374972        0.281246 # C_2 C_3 C_3
    9                      fourier      214.211821        0.343737        0.374972        0.281246 # C_3 C_3 C_3
   10              cosine/periodic       69.894290               1               1 # C_3 C_1 N_2
   11                      fourier      225.286699        0.343737        0.374972        0.281246 # C_3 C_3 C_1
   12                      fourier      237.404026        0.343737        0.374972        0.281246 # C_1 C_3 C_1
   13              cosine/periodic       91.771536              -1               3 # Fe6+3 N_2 C_1

Dihedral Coeffs

    1        4.871694              -1               2 # C_1 C_2 C_2 C_1
    2        0.166667               1               3 # C_3 C_2 C_3 C_2
    3        0.117722               1               3 # C_2 C_3 C_3 C_2

Improper Coeffs

    1        2.000000        1.000000       -1.000000        0.000000               0 # C_1 C_2 C_1 C_2

Pair Coeffs

    1        0.013000        2.594297 # Fe6+3 Fe6+3
    2        0.105000        3.430851 # C_1 C_1
    3        0.105000        3.430851 # C_2 C_2
    4        0.105000        3.430851 # C_3 C_3
    5        0.069000        3.260689 # N_2 N_2
    6        0.069000        3.260689 # N_1 N_1

Atoms

       1      444        1     0.81129    3.48042   12.93572    3.43622
       2      444        1     0.81233   10.44194    4.31264    3.43684
       3      444        1     0.81108   10.44138   12.93555    3.43622
       4      444        1     0.81194    3.48098    4.31281    3.43643
       5      444        2     0.29565    1.48092   13.19073    1.16609
       6      444        2     0.29427    8.44410    4.57057    1.16905
       7      444        2     0.29424   12.44011    4.05727    1.16651
       8      444        2     0.29577    5.47985   12.68053    1.16630
       9      444        2     0.29574   12.44086   13.19074    5.70615
      10      444        2     0.29451    5.47879    4.56334    5.70738
      11      444        2     0.29435    1.48241    4.05867    5.70642
      12      444        2     0.29533    8.44239   12.67934    5.70608
      13      444        2     0.29421   12.44019    4.05919    5.70670
      14      444        2     0.29555    5.47993   12.68090    5.70615
      15      444        2     0.29575    1.48085   13.19074    5.70622
      16      444        2     0.29438    8.44488    4.55075    5.71089
      17      444        2     0.29451    1.48262    4.05762    1.16637
      18      444        2     0.29576    8.44259   12.67967    1.16623
      19      444        2     0.29543   12.44106   13.19055    1.16609
      20      444        2     0.29444    5.47844    4.57178    1.16767
      21      444        3    -0.08254    0.71988   13.27985   -0.00007
      22      444        3    -0.08284    7.68251    4.64503    0.00296
      23      444        3    -0.08277   13.20174    3.97150    0.00027
      24      444        3    -0.08240    6.24092   12.59166    0.00014
      25      444        3    -0.08237   13.20184   13.27985    0.00007
      26      444        3    -0.08303    6.24061    4.65245    0.00144
      27      444        3    -0.08297    0.72103    3.97150    0.00014
      28      444        3    -0.08243    7.68170   12.59131   -0.00007
      29      444        3     0.19659   -0.00026    7.51224    2.14828
      30      444        3     0.19722    6.96069   16.13602    2.14849
      31      444        3     0.19750   -0.00009    9.73618    2.14828
      32      444        3     0.19651    6.96115    1.11154    2.14835
      33      444        3     0.19656   -0.00015    7.51218    4.72403
      34      444        3     0.19754    6.96066   16.13595    4.72409
      35      444        3     0.19735   -0.00040    9.73612    4.72389
      36      444        3     0.19655    6.96153    1.11217    4.72389
      37      444        4    -0.03984    1.01928    8.62372    2.70130
      38      444        4    -0.03931    7.98094    0.00046    2.70164
      39      444        4    -0.03927   12.90379    8.62424    2.70157
      40      444        4    -0.03970    5.94215    0.00029    2.70164
      41      444        4    -0.03933   12.90391    8.62412    4.17080
      42      444        4    -0.03988    5.94213    0.00052    4.17108
      43      444        4    -0.03974    1.01954    8.62361    4.17074
      44      444        4    -0.03929    7.98092    0.00052    4.17087
      45      444        2     0.27440    3.04115    9.90044    3.43547
      46      444        2     0.27593   10.00615    1.27528    3.43609
      47      444        2     0.27591   10.87842    7.35068    3.43561
      48      444        2     0.27444    3.91956   15.97118    3.43636
      49      444        2     0.27405   10.88053    9.90078    3.43670
      50      444        2     0.27593    3.91679    1.27494    3.43615
      51      444        2     0.27592    3.04629    7.34965    3.43533
      52      444        2     0.27399   10.00181   15.97118    3.43615
      53      444        4     0.03060    2.38348    8.62340    3.43554
      54      444        4     0.03015    9.34499    0.00066    3.43615
      55      444        4     0.03017   11.53972    8.62461    3.43629
      56      444        4     0.03056    4.57821    0.00032    3.43629
      57      444        5    -0.33894    2.20506   13.11470    2.08375
      58      444        5    -0.33754    9.17145    4.49092    2.08355
      59      444        5    -0.33747   11.71497    4.13372    2.08320
      60      444        5    -0.33903    4.75555   12.75698    2.08375
      61      444        5    -0.33903   11.71658   13.11499    4.78856
      62      444        5    -0.33749    4.75382    4.49397    4.78966
      63      444        5    -0.33725    2.20825    4.13142    4.78973
      64      444        5    -0.33876    9.16613   12.75623    4.78828
      65      444        5    -0.33749   11.71424    4.13090    4.79000
      66      444        5    -0.33894    4.75579   12.75657    4.78849
      67      444        5    -0.33899    2.20516   13.11481    4.78863
      68      444        5    -0.33759    9.16890    4.49535    4.79103
      69      444        5    -0.33747    2.20800    4.13268    2.08313
      70      444        5    -0.33900    9.16645   12.75646    2.08396
      71      444        5    -0.33883   11.71690   13.11470    2.08382
      72      444        5    -0.33741    4.75261    4.49213    2.08327
      73      444        6    -0.41207   -0.00020    6.41612    1.65918
      74      444        6    -0.41272    6.96103   15.03903    1.65946
      75      444        6    -0.41299   -0.00027   10.83330    1.65959
      76      444        6    -0.41202    6.96110    2.20763    1.65863
      77      444        6    -0.41209   -0.00011    6.41609    5.21306
      78      444        6    -0.41301    6.96084   15.03901    5.21292
      79      444        6    -0.41283   -0.00046   10.83328    5.21278
      80      444        6    -0.41201    6.96147    2.20864    5.21272
      81      444        5    -0.27144    3.25273   11.04466    3.43615
      82      444        5    -0.27273   10.21550    2.42002    3.43650
      83      444        5    -0.27270   10.66726    6.20594    3.43595
      84      444        5    -0.27149    3.70826   14.82678    3.43629
      85      444        5    -0.27098   10.66912   11.04518    3.43657
      86      444        5    -0.27273    3.70691    2.41951    3.43629
      87      444        5    -0.27276    3.25645    6.20525    3.43609
      88      444        5    -0.27093   10.21336   14.82696    3.43609

Bonds

       1        1        1       57
       2        1        1       60
       3        1        1       66
       4        1        1       67
       5        1        1       81
       6        1        1       84
       7        1        2       58
       8        1        2       59
       9        1        2       65
      10        1        2       68
      11        1        2       82
      12        1        2       83
      13        1        3       61
      14        1        3       64
      15        1        3       70
      16        1        3       71
      17        1        3       85
      18        1        3       88
      19        1        4       62
      20        1        4       63
      21        1        4       69
      22        1        4       72
      23        1        4       86
      24        1        4       87
      25        2        5       21
      26        3        5       57
      27        2        6       22
      28        3        6       58
      29        2        7       23
      30        3        7       59
      31        2        8       24
      32        3        8       60
      33        2        9       25
      34        3        9       61
      35        2       10       26
      36        3       10       62
      37        2       11       27
      38        3       11       63
      39        2       12       28
      40        3       12       64
      41        2       13       23
      42        3       13       65
      43        2       14       24
      44        3       14       66
      45        2       15       21
      46        3       15       67
      47        2       16       22
      48        3       16       68
      49        2       17       27
      50        3       17       69
      51        2       18       28
      52        3       18       70
      53        2       19       25
      54        3       19       71
      55        2       20       26
      56        3       20       72
      57        4       21       25
      58        4       22       26
      59        4       23       27
      60        4       24       28
      61        5       29       37
      62        5       29       39
      63        6       29       73
      64        5       30       38
      65        5       30       40
      66        6       30       74
      67        5       31       37
      68        5       31       39
      69        6       31       75
      70        5       32       38
      71        5       32       40
      72        6       32       76
      73        5       33       41
      74        5       33       43
      75        6       33       77
      76        5       34       42
      77        5       34       44
      78        6       34       78
      79        5       35       41
      80        5       35       43
      81        6       35       79
      82        5       36       42
      83        5       36       44
      84        6       36       80
      85        7       37       43
      86        7       37       53
      87        7       38       44
      88        7       38       54
      89        7       39       41
      90        7       39       55
      91        7       40       42
      92        7       40       56
      93        7       41       55
      94        7       42       56
      95        7       43       53
      96        7       44       54
      97        8       45       53
      98        3       45       81
      99        8       46       54
     100        3       46       82
     101        8       47       55
     102        3       47       83
     103        8       48       56
     104        3       48       84
     105        8       49       55
     106        3       49       85
     107        8       50       56
     108        3       50       86
     109        8       51       53
     110        3       51       87
     111        8       52       54
     112        3       52       88

Angles

       1        1       57        1       60
       2        1       57        1       66
       3        1       57        1       67
       4        1       57        1       81
       5        1       57        1       84
       6        1       60        1       66
       7        1       60        1       67
       8        1       60        1       81
       9        1       60        1       84
      10        1       66        1       67
      11        1       66        1       81
      12        1       66        1       84
      13        1       67        1       81
      14        1       67        1       84
      15        1       81        1       84
      16        1       58        2       59
      17        1       58        2       65
      18        1       58        2       68
      19        1       58        2       82
      20        1       58        2       83
      21        1       59        2       65
      22        1       59        2       68
      23        1       59        2       82
      24        1       59        2       83
      25        1       65        2       68
      26        1       65        2       82
      27        1       65        2       83
      28        1       68        2       82
      29        1       68        2       83
      30        1       82        2       83
      31        1       61        3       64
      32        1       61        3       70
      33        1       61        3       71
      34        1       61        3       85
      35        1       61        3       88
      36        1       64        3       70
      37        1       64        3       71
      38        1       64        3       85
      39        1       64        3       88
      40        1       70        3       71
      41        1       70        3       85
      42        1       70        3       88
      43        1       71        3       85
      44        1       71        3       88
      45        1       85        3       88
      46        1       62        4       63
      47        1       62        4       69
      48        1       62        4       72
      49        1       62        4       86
      50        1       62        4       87
      51        1       63        4       69
      52        1       63        4       72
      53        1       63        4       86
      54        1       63        4       87
      55        1       69        4       72
      56        1       69        4       86
      57        1       69        4       87
      58        1       72        4       86
      59        1       72        4       87
      60        1       86        4       87
      61        2       21        5       57
      62        2       22        6       58
      63        2       23        7       59
      64        2       24        8       60
      65        2       25        9       61
      66        2       26       10       62
      67        2       27       11       63
      68        2       28       12       64
      69        2       23       13       65
      70        2       24       14       66
      71        2       21       15       67
      72        2       22       16       68
      73        2       27       17       69
      74        2       28       18       70
      75        2       25       19       71
      76        2       26       20       72
      77        3        5       21       15
      78        4        5       21       25
      79        4       15       21       25
      80        3        6       22       16
      81        4        6       22       26
      82        4       16       22       26
      83        3        7       23       13
      84        4        7       23       27
      85        4       13       23       27
      86        3        8       24       14
      87        4        8       24       28
      88        4       14       24       28
      89        3        9       25       19
      90        4        9       25       21
      91        4       19       25       21
      92        3       10       26       20
      93        4       10       26       22
      94        4       20       26       22
      95        3       11       27       17
      96        4       11       27       23
      97        4       17       27       23
      98        3       12       28       18
      99        4       12       28       24
     100        4       18       28       24
     101        5       37       29       39
     102        6       37       29       73
     103        6       39       29       73
     104        5       38       30       40
     105        6       38       30       74
     106        6       40       30       74
     107        5       37       31       39
     108        6       37       31       75
     109        6       39       31       75
     110        5       38       32       40
     111        6       38       32       76
     112        6       40       32       76
     113        5       41       33       43
     114        6       41       33       77
     115        6       43       33       77
     116        5       42       34       44
     117        6       42       34       78
     118        6       44       34       78
     119        5       41       35       43
     120        6       41       35       79
     121        6       43       35       79
     122        5       42       36       44
     123        6       42       36       80
     124        6       44       36       80
     125        7       29       37       31
     126        8       29       37       43
     127        8       29       37       53
     128        8       31       37       43
     129        8       31       37       53
     130        9       43       37       53
     131        7       30       38       32
     132        8       30       38       44
     133        8       30       38       54
     134        8       32       38       44
     135        8       32       38       54
     136        9       44       38       54
     137        7       29       39       31
     138        8       29       39       41
     139        8       29       39       55
     140        8       31       39       41
     141        8       31       39       55
     142        9       41       39       55
     143        7       30       40       32
     144        8       30       40       42
     145        8       30       40       56
     146        8       32       40       42
     147        8       32       40       56
     148        9       42       40       56
     149        7       33       41       35
     150        8       33       41       39
     151        8       33       41       55
     152        8       35       41       39
     153        8       35       41       55
     154        9       39       41       55
     155        7       34       42       36
     156        8       34       42       40
     157        8       34       42       56
     158        8       36       42       40
     159        8       36       42       56
     160        9       40       42       56
     161        7       33       43       35
     162        8       33       43       37
     163        8       33       43       53
     164        8       35       43       37
     165        8       35       43       53
     166        9       37       43       53
     167        7       34       44       36
     168        8       34       44       38
     169        8       34       44       54
     170        8       36       44       38
     171        8       36       44       54
     172        9       38       44       54
     173       10       53       45       81
     174       10       54       46       82
     175       10       55       47       83
     176       10       56       48       84
     177       10       55       49       85
     178       10       56       50       86
     179       10       53       51       87
     180       10       54       52       88
     181        9       37       53       43
     182       11       37       53       45
     183       11       37       53       51
     184       11       43       53       45
     185       11       43       53       51
     186       12       45       53       51
     187        9       38       54       44
     188       11       38       54       46
     189       11       38       54       52
     190       11       44       54       46
     191       11       44       54       52
     192       12       46       54       52
     193        9       39       55       41
     194       11       39       55       47
     195       11       39       55       49
     196       11       41       55       47
     197       11       41       55       49
     198       12       47       55       49
     199        9       40       56       42
     200       11       40       56       48
     201       11       40       56       50
     202       11       42       56       48
     203       11       42       56       50
     204       12       48       56       50
     205       13        1       57        5
     206       13        2       58        6
     207       13        2       59        7
     208       13        1       60        8
     209       13        3       61        9
     210       13        4       62       10
     211       13        4       63       11
     212       13        3       64       12
     213       13        2       65       13
     214       13        1       66       14
     215       13        1       67       15
     216       13        2       68       16
     217       13        4       69       17
     218       13        3       70       18
     219       13        3       71       19
     220       13        4       72       20
     221       13        1       81       45
     222       13        2       82       46
     223       13        2       83       47
     224       13        1       84       48
     225       13        3       85       49
     226       13        4       86       50
     227       13        4       87       51
     228       13        3       88       52

Dihedrals

       1        1        5       21       25        9
       2        1        5       21       25       19
       3        1       15       21       25        9
       4        1       15       21       25       19
       5        1        6       22       26       10
       6        1        6       22       26       20
       7        1       16       22       26       10
       8        1       16       22       26       20
       9        1        7       23       27       11
      10        1        7       23       27       17
      11        1       13       23       27       11
      12        1       13       23       27       17
      13        1        8       24       28       12
      14        1        8       24       28       18
      15        1       14       24       28       12
      16        1       14       24       28       18
      17        2       39       29       37       31
      18        2       39       29       37       43
      19        2       39       29       37       53
      20        2       73       29       37       31
      21        2       73       29       37       43
      22        2       73       29       37       53
      23        2       37       29       39       31
      24        2       37       29       39       41
      25        2       37       29       39       55
      26        2       73       29       39       31
      27        2       73       29       39       41
      28        2       73       29       39       55
      29        2       40       30       38       32
      30        2       40       30       38       44
      31        2       40       30       38       54
      32        2       74       30       38       32
      33        2       74       30       38       44
      34        2       74       30       38       54
      35        2       38       30       40       32
      36        2       38       30       40       42
      37        2       38       30       40       56
      38        2       74       30       40       32
      39        2       74       30       40       42
      40        2       74       30       40       56
      41        2       39       31       37       29
      42        2       39       31       37       43
      43        2       39       31       37       53
      44        2       75       31       37       29
      45        2       75       31       37       43
      46        2       75       31       37       53
      47        2       37       31       39       29
      48        2       37       31       39       41
      49        2       37       31       39       55
      50        2       75       31       39       29
      51        2       75       31       39       41
      52        2       75       31       39       55
      53        2       40       32       38       30
      54        2       40       32       38       44
      55        2       40       32       38       54
      56        2       76       32       38       30
      57        2       76       32       38       44
      58        2       76       32       38       54
      59        2       38       32       40       30
      60        2       38       32       40       42
      61        2       38       32       40       56
      62        2       76       32       40       30
      63        2       76       32       40       42
      64        2       76       32       40       56
      65        2       43       33       41       35
      66        2       43       33       41       39
      67        2       43       33       41       55
      68        2       77       33       41       35
      69        2       77       33       41       39
      70        2       77       33       41       55
      71        2       41       33       43       35
      72        2       41       33       43       37
      73        2       41       33       43       53
      74        2       77       33       43       35
      75        2       77       33       43       37
      76        2       77       33       43       53
      77        2       44       34       42       36
      78        2       44       34       42       40
      79        2       44       34       42       56
      80        2       78       34       42       36
      81        2       78       34       42       40
      82        2       78       34       42       56
      83        2       42       34       44       36
      84        2       42       34       44       38
      85        2       42       34       44       54
      86        2       78       34       44       36
      87        2       78       34       44       38
      88        2       78       34       44       54
      89        2       43       35       41       33
      90        2       43       35       41       39
      91        2       43       35       41       55
      92        2       79       35       41       33
      93        2       79       35       41       39
      94        2       79       35       41       55
      95        2       41       35       43       33
      96        2       41       35       43       37
      97        2       41       35       43       53
      98        2       79       35       43       33
      99        2       79       35       43       37
     100        2       79       35       43       53
     101        2       44       36       42       34
     102        2       44       36       42       40
     103        2       44       36       42       56
     104        2       80       36       42       34
     105        2       80       36       42       40
     106        2       80       36       42       56
     107        2       42       36       44       34
     108        2       42       36       44       38
     109        2       42       36       44       54
     110        2       80       36       44       34
     111        2       80       36       44       38
     112        2       80       36       44       54
     113        3       29       37       43       33
     114        3       29       37       43       35
     115        3       29       37       43       53
     116        3       31       37       43       33