Created on Thu Sep 21 23:45:46 2023 

           3 atoms
           2 bonds
           1 angles

           2 atom types
           1 bond types
           1 angle types
           0.000000  13.923300 xlo xhi
           0.000000  17.247900 ylo yhi
           0.000000   6.872310 zlo zhi
          -0.000843  -0.000096   0.000288 xy xz yz

Masses

    1    12.010700000 # C_1
    2    15.999400000 # O_2

Bond Coeffs

    1       3000.000      1.16000    # C_1 O_2

Angle Coeffs

    1       harmonic      3000.0000      180.0000    # O_2 C_1 O_2

Pair Coeffs

    1      0.053619     2.800000 # C_1 C_1
    2      0.156884     3.050000 # O_2 O_2

Atoms

       1        1        1     0.70000    7.46677    7.51269    4.55744
       2        1        2     -0.3500    7.11608    7.10214    3.51306
       3        1        2     -0.3500    7.81705    7.92909    5.60107

Bonds

       1        1        1        2
       2        1        1        3

Angles

       1        1        2        1        3
