ITEM: TIMESTEP
0
ITEM: NUMBER OF ATOMS
91
ITEM: BOX BOUNDS xy xz yz pp pp pp
-9.3899999999999995e-04 1.3923299999999999e+01 -8.4300000000000000e-04
0.0000000000000000e+00 1.7248188000000003e+01 -9.6000000000000002e-05
0.0000000000000000e+00 6.8723099999999997e+00 2.8800000000000001e-04
ITEM: ATOMS id type fx fy fz
2 1 0.604931 -1.08666 0.123876
4 1 0.054756 -0.589711 -0.112849
6 2 -148.358 17.5106 -173.696
7 2 147.187 -16.9883 -175.105
10 2 146.893 14.8471 175.39
11 2 -147.063 -15.911 174.761
13 2 147.065 -15.6632 174.694
16 2 -145.653 10.9615 175.25
17 2 -147.055 -16.5678 -175.013
20 2 147.913 18.0929 -174.681
22 3 -120.667 3.21648 -1.679
23 3 121.37 -2.36266 0.988711
26 3 120.493 1.84067 -0.690981
27 3 -121.373 -2.36448 1.13423
29 3 -0.0496438 273.316 254.552
32 3 0.282891 -272.448 254.571
33 3 0.122039 273.403 -254.635
36 3 0.0174646 -273.032 -254.285
37 4 -83.1113 -0.173097 -196.311
38 4 -83.2189 -0.0461033 -196.537
40 4 82.8129 -0.162663 -196.294
41 4 82.7309 -0.192448 196.383
42 4 83.1163 -0.104533 196.24
43 4 -83.3341 0.0546916 196.442
44 4 -83.1159 0.0136885 196.402
46 2 -70.0254 -246.46 -0.102697
47 2 70.8569 245.497 -0.219818
50 2 70.3157 -246.53 -0.0370863
51 2 -70.7137 246.277 -0.342521
53 4 -77.2099 1.86647 -0.00201933
54 4 -77.5401 -1.65919 0.026998
56 4 77.3913 -1.25269 -0.0143207
58 5 94.1146 -4.4913 199.853
59 5 -93.6473 3.58983 201.089
62 5 -92.9664 -1.2225 -200.645
63 5 93.7346 2.85422 -200.469
65 5 -93.7496 2.59358 -200.346
68 5 92.4465 4.32505 -201.545
69 5 93.5155 3.36429 200.777
72 5 -93.9468 -5.12086 200.288
73 6 -0.0495166 -189.141 -78.0363
76 6 -0.0500601 188.869 -78.0997
77 6 -0.0761913 -189.145 78.0068
80 6 -0.194608 188.514 77.6864
82 5 72.9451 230.213 0.379399
83 5 -73.9751 -229.63 0.583707
86 5 -73.2294 230.497 0.143994
87 5 73.1215 -230.005 0.526858
89 7 -4.98964 47.9429 -10.5368
90 8 31.3079 10.728 91.777
91 8 -26.575 -58.9847 -82.2124
1 1 -0.0992279 0.12773 -0.152782
3 1 0.245424 0.484152 -0.0342374
5 2 -146.487 17.2367 -175.273
8 2 146.647 -17.3474 -175.272
9 2 146.435 17.1041 175.271
12 2 -146.313 -17.3607 175.369
14 2 146.485 -17.1145 175.426
15 2 -146.49 17.2108 175.125
18 2 -146.414 -17.4033 -175.482
19 2 146.254 17.1499 -175.093
21 3 -120.216 2.19681 1.01918
24 3 119.666 -2.29571 -1.12889
25 3 120.395 2.16612 -1.13056
28 3 -119.841 -2.41531 1.2169
30 3 0.10962 272.867 254.256
31 3 0.0501026 -272.97 254.058
34 3 0.07705 273.299 -254.222
35 3 0.563652 -272.884 -254.084
39 4 83.0145 -0.0983339 -196.458
45 2 -70.014 -247.15 -0.256208
48 2 69.8777 247.059 0.0116539
49 2 70.3351 -246.649 -0.0490707
52 2 -69.9402 247.386 0.0259346
55 4 77.2694 1.07278 0.0257495
57 5 93.8177 -3.72917 201.239
60 5 -93.8507 3.8345 201.158
61 5 -93.8269 -3.62555 -201.088
64 5 93.5629 4.00442 -201.312
66 5 -93.7667 3.51117 -201.224
67 5 93.8459 -3.77037 -201.07
70 5 93.61 3.91706 201.225
71 5 -93.7802 -3.66978 201.223
74 6 0.034527 -188.323 -77.6375
75 6 0.050438 188.294 -77.5073
78 6 0.0223396 -188.471 77.6613
79 6 -0.0100293 188.144 77.507
81 5 73.9903 229.265 0.304548
84 5 -73.7914 -229.221 -0.00883951
85 5 -73.8764 228.661 -0.0187552
88 5 73.8839 -229.544 -0.0461073
