38
Lattice="7.65796644025031 0.0 0.0 0.0 7.65796644025031 0.0 0.0 0.0 33.266996999999996" Properties=species:S:1:pos:R:3:move_mask:L:1:tags:I:1:forces:R:3:energies:R:1 energy=15.804699620277187 pbc="T T T"
Cu       0.00000000       0.00000000      13.00000000  F        0      -0.00001079      -0.00000380       0.11356054       0.42541640
Cu       2.55265548       0.00000000      13.00000000  F        0      -0.00000000      -0.00004292       0.11330241       0.42539213
Cu       5.10531096       0.00000000      13.00000000  F        0       0.00001079      -0.00000380       0.11356054       0.42541640
Cu       0.00000000       2.55265548      13.00000000  F        0      -0.00001846       0.00000000       0.11354343       0.42541628
Cu       2.55265548       2.55265548      13.00000000  F        0      -0.00000000       0.00000000       0.11304780       0.42537420
Cu       5.10531096       2.55265548      13.00000000  F        0       0.00001846       0.00000000       0.11354343       0.42541628
Cu       0.00000000       5.10531096      13.00000000  F        0      -0.00001079       0.00000380       0.11356054       0.42541640
Cu       2.55265548       5.10531096      13.00000000  F        0      -0.00000000       0.00004292       0.11330241       0.42539213
Cu       5.10531096       5.10531096      13.00000000  F        0       0.00001079       0.00000380       0.11356054       0.42541640
Cu       1.27632774       1.27632774      14.80500000  F        0      -0.01104305      -0.00253094      -0.04845737       0.04455379
Cu       3.82898322       1.27632774      14.80500000  F        0       0.01104305      -0.00253094      -0.04845737       0.04455379
Cu       6.38163870       1.27632774      14.80500000  F        0      -0.00000000      -0.00022089      -0.00207827       0.05164306
Cu       1.27632774       3.82898322      14.80500000  F        0      -0.01104305       0.00253094      -0.04845737       0.04455379
Cu       3.82898322       3.82898322      14.80500000  F        0       0.01104305       0.00253094      -0.04845737       0.04455379
Cu       6.38163870       3.82898322      14.80500000  F        0      -0.00000000       0.00022089      -0.00207827       0.05164306
Cu       1.27632774       6.38163870      14.80500000  F        0      -0.00349808      -0.00000000      -0.00785544       0.05076224
Cu       3.82898322       6.38163870      14.80500000  F        0       0.00349808      -0.00000000      -0.00785544       0.05076224
Cu       6.38163870       6.38163870      14.80500000  F        0      -0.00000000      -0.00000000      -0.00059764       0.05204539
Cu       0.00000000       0.00000000      16.61000000  T        1      -0.31814437      -0.23642045      -0.39708923       0.37141369
Cu       2.55265548       0.00000000      16.61000000  T        1       0.00000000      -2.18895316      -2.74768262       0.06580093
Cu       5.10531096       0.00000000      16.61000000  T        1       0.31814437      -0.23642045      -0.39708923       0.37141369
Cu       0.00000000       2.55265548      16.61000000  T        1      -0.56598052       0.00000000      -0.61604699       0.32734074
Cu       2.55265548       2.55265548      16.61000000  T        1       0.00000000       0.00000000      -4.47152822      -0.19359805
Cu       5.10531096       2.55265548      16.61000000  T        1       0.56598052      -0.00000000      -0.61604699       0.32734074
Cu       0.00000000       5.10531096      16.61000000  T        1      -0.31814437       0.23642045      -0.39708923       0.37141369
Cu       2.55265548       5.10531096      16.61000000  T        1       0.00000000       2.18895316      -2.74768262       0.06580093
Cu       5.10531096       5.10531096      16.61000000  T        1       0.31814437       0.23642045      -0.39708923       0.37141369
C        2.55265548       2.55265548      19.61000000  T        2      -0.00000000      -0.00000000      -3.96835355      -0.36357362
C        2.55265548       3.81951248      18.76209800  T        2      -0.00000000      -3.64190926       5.71458646      -0.76068451
C        2.55265548       1.28579848      18.76209800  T        2       0.00000000       3.64190926       5.71458646      -0.76068451
H        1.67575748       2.55265548      20.26699700  T        2      -2.18178516      -0.00000000       1.67589182       0.70551382
H        3.42955348       2.55265548      20.26699700  T        2       2.18178516       0.00000000       1.67589182       0.70551382
H        2.55265548       4.71880548      19.38435000  T        2       0.00000000       2.46333681       1.78299828       0.72299717
H        2.55265548       0.38650548      19.38435000  T        2       0.00000000      -2.46333681       1.78299828       0.72299717
H        3.43627448       3.85688948      18.11787900  T        2       6.18714050       0.22633633      -0.59948557       2.12263810
H        1.66903648       3.85688948      18.11787900  T        2      -6.18714050       0.22633633      -0.59948557       2.12263810
H        1.66903648       1.24842148      18.11787900  T        2      -6.18714050      -0.22633633      -0.59948557       2.12263810
H        3.43627448       1.24842148      18.11787900  T        2       6.18714050      -0.22633633      -0.59948557       2.12263810
38
Lattice="7.65796644025031 0.0 0.0 0.0 7.65796644025031 0.0 0.0 0.0 33.266996999999996" Properties=species:S:1:pos:R:3:move_mask:L:1:tags:I:1:forces:R:3:energies:R:1 energy=12.190606738970814 pbc="T T T"
Cu       0.00000000       0.00000000      13.00000000  F        0      -0.00041177       0.00020543       0.11311891       0.42470959
Cu       2.55265548       0.00000000      13.00000000  F        0      -0.00000000      -0.00005621       0.11800086       0.42300073
Cu       5.10531096       0.00000000      13.00000000  F        0       0.00041177       0.00020543       0.11311891       0.42470959
Cu       0.00000000       2.55265548      13.00000000  F        0      -0.00005025      -0.00000000       0.11422035       0.42455161
Cu       2.55265548       2.55265548      13.00000000  F        0      -0.00000000      -0.00000000       0.12100383       0.42238367
Cu       5.10531096       2.55265548      13.00000000  F        0       0.00005025      -0.00000000       0.11422035       0.42455161
Cu       0.00000000       5.10531096      13.00000000  F        0      -0.00041177      -0.00020543       0.11311891       0.42470959
Cu       2.55265548       5.10531096      13.00000000  F        0      -0.00000000       0.00005621       0.11800086       0.42300073
Cu       5.10531096       5.10531096      13.00000000  F        0       0.00041177      -0.00020543       0.11311891       0.42470959
Cu       1.27632774       1.27632774      14.80500000  F        0      -0.07284793      -0.04102801      -0.13144992       0.04742660
Cu       3.82898322       1.27632774      14.80500000  F        0       0.07284793      -0.04102801      -0.13144992       0.04742660
Cu       6.38163870       1.27632774      14.80500000  F        0      -0.00000000      -0.01130914      -0.04612375       0.05220989
Cu       1.27632774       3.82898322      14.80500000  F        0      -0.07284793       0.04102801      -0.13144992       0.04742660
Cu       3.82898322       3.82898322      14.80500000  F        0       0.07284793       0.04102801      -0.13144992       0.04742660
Cu       6.38163870       3.82898322      14.80500000  F        0       0.00000000       0.01130914      -0.04612375       0.05220989
Cu       1.27632774       6.38163870      14.80500000  F        0      -0.09966681      -0.00000000      -0.15964975       0.05576723
Cu       3.82898322       6.38163870      14.80500000  F        0       0.09966681      -0.00000000      -0.15964975       0.05576723
Cu       6.38163870       6.38163870      14.80500000  F        0      -0.00000000      -0.00000000      -0.04727451       0.05249273
Cu      -0.00454492      -0.00337744      16.60432730  T        1      -0.23570724      -0.18503997      -0.33279577       0.36161225
Cu       2.55265548      -0.03127076      16.57074739  T        1       0.00000000      -0.94585174      -1.32398467       0.13098334
Cu       5.10985588      -0.00337744      16.60432730  T        1       0.23570724      -0.18503997      -0.33279577       0.36161225
Cu      -0.00808544       2.55265548      16.60119933  T        1      -0.40601586       0.00000000      -0.49808979       0.31544756
Cu       2.55265548       2.55265548      16.54612103  T        1       0.00000000      -0.00000000      -2.06784150      -0.07928450
Cu       5.11339640       2.55265548      16.60119933  T        1       0.40601586      -0.00000000      -0.49808979       0.31544756
Cu      -0.00454492       5.10868840      16.60432730  T        1      -0.23570724       0.18503997      -0.33279577       0.36161225
Cu       2.55265548       5.13658172      16.57074739  T        1      -0.00000000       0.94585174      -1.32398467       0.13098334
Cu       5.10985588       5.10868840      16.60432730  T        1       0.23570724       0.18503997      -0.33279577       0.36161225
C        2.55265548       2.55265548      19.55330923  T        2      -0.00000000       0.00000000      -2.42132056      -0.34752984
C        2.55265548       3.76748520      18.84373495  T        2      -0.00000000      -3.04847275       3.06546297      -0.47837797
C        2.55265548       1.33782576      18.84373495  T        2       0.00000000       3.04847275       3.06546297      -0.47837797
H        1.64458912       2.55265548      20.29093831  T        2      -0.75667651      -0.00000000       0.62993575       0.51217155
H        3.46072184       2.55265548      20.29093831  T        2       0.75667651      -0.00000000       0.62993575       0.51217155
H        2.55265548       4.75399601      19.40982140  T        2      -0.00000000       1.34098790       0.79146907       0.56832424
H        2.55265548       0.35131495      19.40982140  T        2       0.00000000      -1.34098790       0.79146907       0.56832424
H        3.52466220       3.86012286      18.10931492  T        2       2.89342291       0.23017278       0.10936445       1.19984863
H        1.58064876       3.86012286      18.10931492  T        2      -2.89342291       0.23017278       0.10936445       1.19984863
H        1.58064876       1.24518810      18.10931492  T        2      -2.89342291      -0.23017278       0.10936445       1.19984863
H        3.52466220       1.24518810      18.10931492  T        2       2.89342291      -0.23017278       0.10936445       1.19984863
38
Lattice="7.65796644025031 0.0 0.0 0.0 7.65796644025031 0.0 0.0 0.0 33.266996999999996" Properties=species:S:1:pos:R:3:move_mask:L:1:tags:I:1:forces:R:3:energies:R:1 energy=10.240168537856757 pbc="T T T"
Cu       0.00000000       0.00000000      13.00000000  F        0      -0.00063481       0.00037886       0.11321531       0.42365953
Cu       2.55265548       0.00000000      13.00000000  F        0       0.00000000      -0.00017248       0.12335890       0.42026438
Cu       5.10531096       0.00000000      13.00000000  F        0       0.00063481       0.00037886       0.11321531       0.42365953
Cu       0.00000000       2.55265548      13.00000000  F        0       0.00002744       0.00000000       0.11571294       0.42326839
Cu       2.55265548       2.55265548      13.00000000  F        0      -0.00000000      -0.00000000       0.12977358       0.41892722
Cu       5.10531096       2.55265548      13.00000000  F        0      -0.00002744      -0.00000000       0.11571294       0.42326839
Cu       0.00000000       5.10531096      13.00000000  F        0      -0.00063481      -0.00037886       0.11321531       0.42365953
Cu       2.55265548       5.10531096      13.00000000  F        0       0.00000000       0.00017248       0.12335890       0.42026438
Cu       5.10531096       5.10531096      13.00000000  F        0       0.00063481      -0.00037886       0.11321531       0.42365953
Cu       1.27632774       1.27632774      14.80500000  F        0      -0.15104737      -0.09447695      -0.23680593       0.05338692
Cu       3.82898322       1.27632774      14.80500000  F        0       0.15104737      -0.09447695      -0.23680593       0.05338692
Cu       6.38163870       1.27632774      14.80500000  F        0      -0.00000000      -0.03166303      -0.12472105       0.05409907
Cu       1.27632774       3.82898322      14.80500000  F        0      -0.15104737       0.09447695      -0.23680593       0.05338692
Cu       3.82898322       3.82898322      14.80500000  F        0       0.15104737       0.09447695      -0.23680593       0.05338692
Cu       6.38163870       3.82898322      14.80500000  F        0      -0.00000000       0.03166303      -0.12472105       0.05409907
Cu       1.27632774       6.38163870      14.80500000  F        0      -0.22268292       0.00000000      -0.36041313       0.06608632
Cu       3.82898322       6.38163870      14.80500000  F        0       0.22268292       0.00000000      -0.36041313       0.06608632
Cu       6.38163870       6.38163870      14.80500000  F        0      -0.00000000       0.00000000      -0.13258931       0.05434986
Cu      -0.01171919      -0.00899839      16.59424144  T        1      -0.09012518      -0.07845147      -0.20261831       0.35235485
Cu       2.55265548      -0.06082182      16.52964665  T        1       0.00000000       0.05474461      -0.23459801       0.20140499
Cu       5.11703015      -0.00899839      16.59424144  T        1       0.09012518      -0.07845147      -0.20261831       0.35235485
Cu      -0.02045842       2.55265548      16.58608585  T        1      -0.13588108       0.00000000      -0.27296553       0.30703358
Cu       2.55265548       2.55265548      16.48177814  T        1      -0.00000000       0.00000000      -0.28975198       0.03947382
Cu       5.12576938       2.55265548      16.58608585  T        1       0.13588108       0.00000000      -0.27296553       0.30703358
Cu      -0.01171919       5.11430935      16.59424144  T        1      -0.09012518       0.07845147      -0.20261831       0.35235485
Cu       2.55265548       5.16613278      16.52964665  T        1       0.00000000      -0.05474461      -0.23459801       0.20140499
Cu       5.11703015       5.11430935      16.59424144  T        1       0.09012518       0.07845147      -0.20261831       0.35235485
C        2.55265548       2.55265548      19.47902620  T        2      -0.00000000      -0.00000000      -0.84975842      -0.35976814
C        2.55265548       3.67509310      18.93835621  T        2      -0.00000000      -1.37849753       1.79787535      -0.33120935
C        2.55265548       1.43021786      18.93835621  T        2      -0.00000000       1.37849753       1.79787535      -0.33120935
H        1.62058875       2.55265548      20.31080139  T        2       0.12806271       0.00000000      -0.13055726       0.43452030
H        3.48472221       2.55265548      20.31080139  T        2      -0.12806271      -0.00000000      -0.13055726       0.43452030
H        2.55265548       4.79535762      19.43450846  T        2      -0.00000000      -0.26274068      -0.16328583       0.43269887
H        2.55265548       0.30995334      19.43450846  T        2      -0.00000000       0.26274068      -0.16328583       0.43269887
H        3.61463569       3.86705823      18.11201966  T        2       1.04711807       0.16124852       0.23658728       0.68831188
H        1.49067527       3.86705823      18.11201966  T        2      -1.04711807       0.16124852       0.23658728       0.68831188
H        1.49067527       1.23825273      18.11201966  T        2      -1.04711807      -0.16124852       0.23658728       0.68831188
H        3.61463569       1.23825273      18.11201966  T        2       1.04711807      -0.16124852       0.23658728       0.68831188
38
Lattice="7.65796644025031 0.0 0.0 0.0 7.65796644025031 0.0 0.0 0.0 33.266996999999996" Properties=species:S:1:pos:R:3:move_mask:L:1:tags:I:1:forces:R:3:energies:R:1 energy=9.779222863678704 pbc="T T T"
Cu       0.00000000       0.00000000      13.00000000  F        0      -0.00063328       0.00040439       0.11372428       0.42293624
Cu       2.55265548       0.00000000      13.00000000  F        0       0.00000000      -0.00024644       0.12613533       0.41885422
Cu       5.10531096       0.00000000      13.00000000  F        0       0.00063328       0.00040439       0.11372428       0.42293624
Cu       0.00000000       2.55265548      13.00000000  F        0       0.00008877      -0.00000000       0.11694500       0.42239492
Cu       2.55265548       2.55265548      13.00000000  F        0       0.00000000      -0.00000000       0.13402396       0.41712718
Cu       5.10531096       2.55265548      13.00000000  F        0      -0.00008877       0.00000000       0.11694500       0.42239492
Cu       0.00000000       5.10531096      13.00000000  F        0      -0.00063328      -0.00040439       0.11372428       0.42293624
Cu       2.55265548       5.10531096      13.00000000  F        0      -0.00000000       0.00024644       0.12613533       0.41885422
Cu       5.10531096       5.10531096      13.00000000  F        0       0.00063328      -0.00040439       0.11372428       0.42293624
Cu       1.27632774       1.27632774      14.80500000  F        0      -0.19250748      -0.12270771      -0.29805995       0.05758383
Cu       3.82898322       1.27632774      14.80500000  F        0       0.19250748      -0.12270771      -0.29805995       0.05758383
Cu       6.38163870       1.27632774      14.80500000  F        0      -0.00000000      -0.04649330      -0.18453171       0.05602878
Cu       1.27632774       3.82898322      14.80500000  F        0      -0.19250748       0.12270771      -0.29805995       0.05758383
Cu       3.82898322       3.82898322      14.80500000  F        0       0.19250748       0.12270771      -0.29805995       0.05758383
Cu       6.38163870       3.82898322      14.80500000  F        0      -0.00000000       0.04649330      -0.18453171       0.05602878
Cu       1.27632774       6.38163870      14.80500000  F        0      -0.28028996       0.00000000      -0.46652125       0.07255333
Cu       3.82898322       6.38163870      14.80500000  F        0       0.28028996      -0.00000000      -0.46652125       0.07255333
Cu       6.38163870       6.38163870      14.80500000  F        0      -0.00000000       0.00000000      -0.19866090       0.05642730
Cu      -0.01620163      -0.01267935      16.58626614  T        1       0.01713619       0.00688185      -0.09360892       0.34744610
Cu       2.55265548      -0.07019142      16.50980985  T        1      -0.00000000       0.45773218       0.23320251       0.23601971
Cu       5.12151259      -0.01267935      16.58626614  T        1      -0.01713619       0.00688185      -0.09360892       0.34744610
Cu      -0.02776012       2.55265548      16.57481045  T        1       0.05321297       0.00000000      -0.09485099       0.30336528
Cu       2.55265548       2.55265548      16.45237339  T        1      -0.00000000      -0.00000000       0.43793421       0.10093691
Cu       5.13307108       2.55265548      16.57481045  T        1      -0.05321297       0.00000000      -0.09485099       0.30336528
Cu      -0.01620163       5.11799031      16.58626614  T        1       0.01713619      -0.00688185      -0.09360892       0.34744610
Cu       2.55265548       5.17550238      16.50980985  T        1      -0.00000000      -0.45773218       0.23320251       0.23601971
Cu       5.12151259       5.11799031      16.58626614  T        1      -0.01713619      -0.00688185      -0.09360892       0.34744610
C        2.55265548       2.55265548      19.43414479  T        2      -0.00000000       0.00000000       0.11432861      -0.29238549
C        2.55265548       3.61271948      19.01186392  T        2      -0.00000000      -0.02791368       0.93683119      -0.31178118
C        2.55265548       1.49259148      19.01186392  T        2      -0.00000000       0.02791368       0.93683119      -0.31178118
H        1.61464837       2.55265548      20.31510326  T        2       0.31227201      -0.00000000      -0.31812564       0.42478486
H        3.49066259       2.55265548      20.31510326  T        2      -0.31227201      -0.00000000      -0.31812564       0.42478486
H        2.55265548       4.80400805      19.43968274  T        2      -0.00000000      -0.79831534      -0.36539414       0.42500296
H        2.55265548       0.30130291      19.43968274  T        2       0.00000000       0.79831534      -0.36539414       0.42500296
H        3.67008520       3.87300955      18.11788458  T        2       0.41621713       0.08299543       0.16419297       0.52270163
H        1.43522576       3.87300955      18.11788458  T        2      -0.41621713       0.08299543       0.16419297       0.52270163
H        1.43522576       1.23230141      18.11788458  T        2      -0.41621713      -0.08299543       0.16419297       0.52270163
H        3.67008520       1.23230141      18.11788458  T        2       0.41621713      -0.08299543       0.16419297       0.52270163
38
Lattice="7.65796644025031 0.0 0.0 0.0 7.65796644025031 0.0 0.0 0.0 33.266996999999996" Properties=species:S:1:pos:R:3:move_mask:L:1:tags:I:1:forces:R:3:energies:R:1 energy=9.671524947212601 pbc="T T T"
Cu       0.00000000       0.00000000      13.00000000  F        0      -0.00056117       0.00035573       0.11419148       0.42265791
Cu       2.55265548       0.00000000      13.00000000  F        0      -0.00000000      -0.00020602       0.12645655       0.41867604
Cu       5.10531096       0.00000000      13.00000000  F        0       0.00056117       0.00035573       0.11419148       0.42265791
Cu       0.00000000       2.55265548      13.00000000  F        0       0.00008729      -0.00000000       0.11748827       0.42207422
Cu       2.55265548       2.55265548      13.00000000  F        0      -0.00000000      -0.00000000       0.13433690       0.41689638
Cu       5.10531096       2.55265548      13.00000000  F        0      -0.00008729       0.00000000       0.11748827       0.42207422
Cu       0.00000000       5.10531096      13.00000000  F        0      -0.00056117      -0.00035573       0.11419148       0.42265791
Cu       2.55265548       5.10531096      13.00000000  F        0      -0.00000000       0.00020602       0.12645655       0.41867604
Cu       5.10531096       5.10531096      13.00000000  F        0       0.00056117      -0.00035573       0.11419148       0.42265791
Cu       1.27632774       1.27632774      14.80500000  F        0      -0.19445189      -0.12192455      -0.31175225       0.05843967
Cu       3.82898322       1.27632774      14.80500000  F        0       0.19445189      -0.12192455      -0.31175225       0.05843967
Cu       6.38163870       1.27632774      14.80500000  F        0       0.00000000      -0.05071453      -0.20900845       0.05693269
Cu       1.27632774       3.82898322      14.80500000  F        0      -0.19445189       0.12192455      -0.31175225       0.05843967
Cu       3.82898322       3.82898322      14.80500000  F        0       0.19445189       0.12192455      -0.31175225       0.05843967
Cu       6.38163870       3.82898322      14.80500000  F        0      -0.00000000       0.05071453      -0.20900845       0.05693269
Cu       1.27632774       6.38163870      14.80500000  F        0      -0.27047504      -0.00000000      -0.47096001       0.07256971
Cu       3.82898322       6.38163870      14.80500000  F        0       0.27047504       0.00000000      -0.47096001       0.07256971
Cu       6.38163870       6.38163870      14.80500000  F        0      -0.00000000       0.00000000      -0.22589653       0.05750558
Cu      -0.01723653      -0.01364384      16.58227838  T        1       0.05605459       0.04012910      -0.04455572       0.34550785
Cu       2.55265548      -0.06553926      16.50741665  T        1      -0.00000000       0.49099560       0.33929244       0.24062354
Cu       5.12254749      -0.01364384      16.58227838  T        1      -0.05605459       0.04012910      -0.04455572       0.34550785
Cu      -0.02901973       2.55265548      16.56981750  T        1       0.11772135       0.00000000      -0.01880860       0.30118690
Cu       2.55265548       2.55265548      16.45029292  T        1      -0.00000000       0.00000000       0.61705156       0.11723388
Cu       5.13433069       2.55265548      16.56981750  T        1      -0.11772135       0.00000000      -0.01880860       0.30118690
Cu      -0.01723653       5.11895480      16.58227838  T        1       0.05605459      -0.04012910      -0.04455572       0.34550785
Cu       2.55265548       5.17085022      16.50741665  T        1      -0.00000000      -0.49099560       0.33929244       0.24062354
Cu       5.12254749       5.11895480      16.58227838  T        1      -0.05605459      -0.04012910      -0.04455572       0.34550785
C        2.55265548       2.55265548      19.42244583  T        2      -0.00000000      -0.00000000       0.26398796      -0.24796211
C        2.55265548       3.59387304      19.05033632  T        2       0.00000000       0.37857860       0.50739911      -0.31219089
C        2.55265548       1.51143792      19.05033632  T        2       0.00000000      -0.37857860       0.50739911      -0.31219089
H        1.61756237       2.55265548      20.31143513  T        2       0.22770153       0.00000000      -0.23530601       0.42593756
H        3.48774859       2.55265548      20.31143513  T        2      -0.22770153       0.00000000      -0.23530601       0.42593756
H        2.55265548       4.79363895      19.43563379  T        2      -0.00000000      -0.70701813      -0.30543678       0.42452468
H        2.55265548       0.31167201      19.43563379  T        2      -0.00000000       0.70701813      -0.30543678       0.42452468
H        3.69511082       3.87618555      18.12220355  T        2       0.24500074       0.04946667       0.11918826       0.48019015
H        1.41020014       3.87618555      18.12220355  T        2      -0.24500074       0.04946667       0.11918826       0.48019015
H        1.41020014       1.22912541      18.12220355  T        2      -0.24500074      -0.04946667       0.11918826       0.48019015
H        3.69511082       1.22912541      18.12220355  T        2       0.24500074      -0.04946667       0.11918826       0.48019015
38
Lattice="7.65796644025031 0.0 0.0 0.0 7.65796644025031 0.0 0.0 0.0 33.266996999999996" Properties=species:S:1:pos:R:3:move_mask:L:1:tags:I:1:forces:R:3:energies:R:1 energy=9.57446099945115 pbc="T T T"
Cu       0.00000000       0.00000000      13.00000000  F        0      -0.00041583       0.00024645       0.11492343       0.42244572
Cu       2.55265548       0.00000000      13.00000000  F        0       0.00000000      -0.00008255       0.12559216       0.41906447
Cu       5.10531096       0.00000000      13.00000000  F        0       0.00041583       0.00024645       0.11492343       0.42244572
Cu       0.00000000       2.55265548      13.00000000  F        0       0.00004741       0.00000000       0.11797072       0.42186181
Cu       2.55265548       2.55265548      13.00000000  F        0      -0.00000000      -0.00000000       0.13257130       0.41742532
Cu       5.10531096       2.55265548      13.00000000  F        0      -0.00004741       0.00000000       0.11797072       0.42186181
Cu       0.00000000       5.10531096      13.00000000  F        0      -0.00041583      -0.00024645       0.11492343       0.42244572
Cu       2.55265548       5.10531096      13.00000000  F        0      -0.00000000       0.00008255       0.12559216       0.41906447
Cu       5.10531096       5.10531096      13.00000000  F        0       0.00041583      -0.00024645       0.11492343       0.42244572
Cu       1.27632774       1.27632774      14.80500000  F        0      -0.17343649      -0.10330356      -0.30676231       0.05779709
Cu       3.82898322       1.27632774      14.80500000  F        0       0.17343649      -0.10330356      -0.30676231       0.05779709
Cu       6.38163870       1.27632774      14.80500000  F        0      -0.00000000      -0.05056061      -0.22819553       0.05770295
Cu       1.27632774       3.82898322      14.80500000  F        0      -0.17343649       0.10330356      -0.30676231       0.05779709
Cu       3.82898322       3.82898322      14.80500000  F        0       0.17343649       0.10330356      -0.30676231       0.05779709
Cu       6.38163870       3.82898322      14.80500000  F        0       0.00000000       0.05056061      -0.22819553       0.05770295
Cu       1.27632774       6.38163870      14.80500000  F        0      -0.21827983      -0.00000000      -0.42425757       0.06909406
Cu       3.82898322       6.38163870      14.80500000  F        0       0.21827983      -0.00000000      -0.42425757       0.06909406
Cu       6.38163870       6.38163870      14.80500000  F        0      -0.00000000      -0.00000000      -0.24707679       0.05854480
Cu      -0.01682692      -0.01353188      16.57784149  T        1       0.07980018       0.06261609       0.00118718       0.34345588
Cu       2.55265548      -0.05067539      16.51289462  T        1       0.00000000       0.38626779       0.35064115       0.23500472
Cu       5.12213788      -0.01353188      16.57784149  T        1      -0.07980018       0.06261609       0.00118718       0.34345588
Cu      -0.02739094       2.55265548      16.56511933  T        1       0.15142261       0.00000000       0.04754084       0.29753407
Cu       2.55265548       2.55265548      16.46236593  T        1      -0.00000000      -0.00000000       0.66354041       0.12196213
Cu       5.13270190       2.55265548      16.56511933  T        1      -0.15142261       0.00000000       0.04754084       0.29753407