ITEM: TIMESTEP
0
ITEM: NUMBER OF ATOMS
338
ITEM: BOX BOUNDS xy xz yz pp pp pp
-1.7226530000000000e+00 1.0945521000000001e+01 2.1872100000000000e-01
-5.7765800000000000e-01 1.1948498000000001e+01 -1.7226530000000000e+00
0.0000000000000000e+00 3.3431263000000001e+01 -5.7765800000000000e-01
ITEM: ATOMS id type fx fy fz
1 1 59.5407 9.56171 -32.9502
6 1 14.6906 21.2964 -26.1552
7 1 55.9053 -10.4228 -33.4982
8 1 17.4776 -34.0585 -17.8526
9 1 -68.0514 -17.5555 31.8336
13 1 -8.71315 -33.4036 18.5606
14 1 -55.358 13.7514 27.0684
15 1 -12.2634 30.7919 21.1857
21 3 6.74979 3.32704 -1.74529
22 3 -3.7003 -2.00588 -1.53697
26 3 -0.0238103 1.11583 -6.61176
27 3 -3.57564 -5.63544 1.8674
28 3 4.30077 3.83377 6.43172
29 3 9.52094 -1.84105 -3.39956
30 3 -5.8675 -0.309538 -1.10517
50 3 7.69538 -4.06984 2.58918
51 3 -3.54436 7.48542 0.342788
52 3 -2.66669 0.409585 -6.92305
55 3 -1.33143 7.34651 -0.81913
56 3 3.16217 -6.46415 3.03674
57 3 -4.37149 -3.43556 -5.16212
63 3 6.51138 2.96447 2.9417
64 3 -4.01422 4.04465 -2.54825
65 3 -5.51183 -5.84718 2.03148
66 3 7.90058 3.6534 2.61329
67 3 -4.71995 -6.49656 1.05597
68 3 -1.86337 -0.0833161 -7.29647
69 3 6.43876 -3.06102 -2.00785
70 3 -3.23579 1.98516 -1.91194
71 3 -1.51842 -7.94435 -0.579827
72 3 3.34798 5.46398 4.72189
73 3 -4.04274 3.45012 -4.89752
74 3 0.0665024 -1.49195 -6.93543
75 3 -3.43126 5.71842 1.82616
76 3 4.32419 -3.69988 6.68115
77 3 9.53368 1.71949 -3.15636
78 3 -5.61816 0.583215 -1.4296
79 3 6.86145 -2.68058 3.74742
80 3 -4.75805 -4.26849 -3.29629
81 3 -4.79072 6.03034 1.67759
85 3 -6.27034 -2.60326 1.75599
86 3 3.01722 1.69609 2.05516
90 3 -0.415965 -1.52894 6.98447
91 3 3.44078 5.81079 -2.03324
92 3 -3.74658 -4.43545 -6.56257
93 3 -9.49459 2.26741 3.1251
94 3 5.46482 -1.49483 2.47822
107 3 -7.69092 4.49652 -1.85888
108 3 3.13882 -6.64135 -2.15352
109 3 4.47935 0.735812 6.07302
112 3 1.49936 -7.32084 0.459482
113 3 -2.98475 7.04117 -3.18147
114 3 4.45 2.64419 5.41423
120 3 -6.69753 -2.16377 -4.42157
121 3 3.44981 -4.45272 4.23801
122 3 4.93428 6.02103 -1.19958
123 3 -8.02068 -3.09665 -2.5141
124 3 5.215 6.26168 -0.36294
125 3 1.1011 -1.24727 7.17507
126 3 -6.61545 3.12002 3.25079
127 3 2.86509 -2.18509 2.03377
128 3 1.42978 7.88381 0.739356
129 3 -3.53919 -7.30218 -2.90446
130 3 4.19012 -2.97027 5.63933
131 3 0.268783 0.674304 6.65197
132 3 3.41568 -5.22475 -3.08405
133 3 -4.38697 4.18668 -6.10703
134 3 -9.42292 -1.68423 3.14883
135 3 5.32941 0.261881 1.497
136 3 -6.68388 2.50941 -3.73015
137 3 4.5937 4.2888 3.92292
138 3 4.64987 -6.26207 -1.17333
142 4 4.29481 10.9657 -4.62094
146 4 -4.21331 5.06336 -5.47763
147 5 -23.2631 22.4227 38.0875
148 5 14.1498 -18.424 14.4734
149 4 9.99649 -4.43329 -6.33915
151 5 -55.6923 10.039 6.27582
167 4 10.8615 -3.21654 6.58177
168 5 -50.4128 14.9609 -13.446
169 5 -8.35218 -18.4735 19.8457
171 4 -1.56703 5.10838 5.82325
173 5 11.1031 -25.6904 -18.7538
178 4 6.91927 8.41238 3.20392
180 5 -15.3151 -25.8399 -22.6489
181 4 10.3921 1.75296 6.38959
182 5 -48.9708 -13.8534 -10.9408
183 5 -9.4633 13.8789 20.0202
184 4 1.91218 -10.2548 -5.86402
185 4 -1.58526 -4.42541 5.43088
186 5 -25.5315 39.7397 24.1427
187 5 11.7398 20.4992 -19.2267
188 4 -4.21715 -5.58114 -5.68644
189 5 -21.1334 -24.0207 35.924
190 5 15.1518 18.3562 15.688
191 4 8.42274 6.4659 -5.13825
192 4 7.93733 -8.52305 5.14615
193 5 -54.6242 -11.5613 5.11637
194 5 -13.0074 23.708 -24.2345
198 4 0.996423 -8.63961 6.18863
202 4 3.31011 -4.62376 5.9282
203 5 24.3892 -22.0711 -36.9004
204 5 -14.8963 17.6111 -16.4226
205 4 -9.70508 5.35028 4.5255
207 5 53.4241 -11.0188 -4.22273
216 4 -10.5881 3.83431 -5.22327
217 5 49.7414 -16.0292 7.3677
220 4 0.735637 -4.2768 -6.57152
222 5 -9.24922 20.9092 19.8771
227 4 -7.07221 -8.18051 -5.9315
229 5 10.4352 21.4694 21.5569
230 4 -9.43274 -0.864659 -7.10332
231 5 48.851 13.4215 10.1992
232 5 9.05853 -13.6054 -20.9229
233 4 -0.507103 9.6105 6.25535
234 4 1.19656 4.55385 -6.81801
235 5 26.2293 -39.3738 -26.4915
236 5 -10.523 -20.9651 19.3559
237 4 5.01008 3.17518 6.28256
238 5 24.2172 23.3162 -36.2655
239 5 -15.7239 -15.9621 -18.6951
240 4 -8.16028 -6.77771 4.03699
241 4 -8.70876 9.18779 -6.44011
242 5 52.5805 11.7357 -4.05389
243 5 12.9883 -22.3029 23.9006
247 6 -73.5542 67.0485 67.2159
250 6 -80.5474 76.6478 -48.1613
251 6 72.4116 -67.3102 -9.07503
252 6 -22.7662 -5.19138 16.3247
253 6 3.86388 56.6138 111.214
268 6 10.9468 75.6803 -86.3764
269 6 41.0729 -76.0794 68.5831
270 6 -11.3375 -8.1675 18.3777
272 6 91.1946 -7.82287 -61.687
273 6 8.74568 -13.1679 15.483
278 6 42.2374 -46.1767 -80.3487
280 6 5.72643 -77.9677 -85.729
281 6 49.883 85.6388 67.9488
282 6 -13.9202 15.1215 15.4877
283 6 -78.095 -68.6592 64.3602
284 6 82.9671 4.18501 -59.5196
285 6 6.36517 16.0504 15.5732
286 6 -82.739 -76.3986 -49.21
287 6 77.6062 69.1291 -7.36392
288 6 -25.3347 6.81908 16.8772
289 6 1.12066 -55.1601 114.772
290 6 54.3264 44.5589 -87.668
291 6 -13.8419 -8.99521 11.9324
295 6 77.1717 -76.2815 -61.2474
298 6 85.9835 -70.3739 51.6184
299 6 -77.1463 66.1226 8.42652
300 6 23.5193 8.15624 -15.2796
301 6 4.70335 -57.5268 -110.356
310 6 -5.43523 -80.2219 87.7863
312 6 13.4317 18.6945 -16.2329
314 6 -86.3608 7.7785 62.984
315 6 -7.22867 13.2379 -18.2882
320 6 -66.341 55.7783 90.6702
322 6 -5.173 76.3504 86.9765
323 6 -50.5846 -85.5365 -65.3444
324 6 13.7966 -15.2386 -15.0585
325 6 79.0331 69.9616 -62.4633
326 6 -86.863 -7.01801 58.7057
327 6 -8.99911 -12.9549 -18.7757
328 6 87.5285 69.6522 52.3609
329 6 -82.0142 -66.5775 9.06636
330 6 21.3592 -3.6736 -14.189
331 6 4.62735 54.1357 -114.655
332 6 -62.0172 -47.815 87.9134
333 6 16.38 6.63587 -10.1421
2 1 30.6179 36.0237 -8.21436
3 1 15.3853 113.559 -5.95142
4 1 12.2485 -49.0255 -2.27688
5 1 68.4933 3.02531 -34.0951
10 1 -4.67282 -27.9265 25.0989
11 1 103.978 17.8424 -17.2865
12 1 -55.8711 -19.4585 16.7788
16 2 12.7279 -44.0977 -36.4026
17 3 9.00687 6.25442 -4.77262
18 3 7.11406 -4.78802 2.00972
19 3 -1.71667 5.94939 3.04522
20 3 -5.18764 0.840094 -6.22777
23 3 -1.2298 7.58772 0.415381
24 3 2.31705 -5.07075 5.25405
25 3 -4.61845 -3.44677 -4.89535
31 3 6.98618 3.17225 3.59716
32 3 -3.5635 4.34088 -2.43826
33 3 -5.16742 -5.8665 1.51206
34 3 9.1386 2.39514 3.56644
35 3 -1.16882 -11.2956 -7.28403
36 3 -4.0262 3.15558 -5.05963
37 3 2.25175 -6.13658 16.7945
38 3 -5.39037 3.12172 -0.834464
39 3 -2.27318 -2.08531 -2.90048
40 3 2.20491 6.51196 4.24921
41 3 -2.41613 -0.948961 -7.38095
42 3 -1.13846 10.3593 3.21847
43 3 -2.70001 8.04722 -7.92183
44 3 3.96513 19.4444 11.107
45 3 8.83145 2.86729 -3.39184
46 3 -2.36206 3.62693 -0.800461
47 3 5.04498 1.4325 4.74196
48 3 -6.84638 -2.96189 -4.67868
49 3 -5.63362 3.98676 3.13045
53 3 6.00015 2.37205 -0.724372
54 3 20.1035 18.7502 19.4552
58 3 0.408673 3.51638 -7.40603
59 3 -5.21683 -5.2982 0.86137
60 3 2.77439 3.57713 6.19526
61 3 8.50795 -3.58844 -3.51363
62 3 -7.82569 -0.246214 -2.39653
82 3 -8.57301 4.62602 -2.94696
83 3 2.37571 -7.30347 0.0189915
84 3 2.8207 1.19335 5.6495
87 3 0.803717 -7.67966 2.12874
88 3 -6.02556 11.8233 3.17173
89 3 4.44985 3.30436 5.76389
95 3 -6.60251 -4.45426 -3.03627
96 3 3.71452 -3.93662 2.34794
97 3 5.88919 5.94873 -1.19431
98 3 9.07622 -17.4607 9.71157
99 3 -0.471394 4.8214 4.88192
100 3 5.43197 -4.10812 -7.15656
101 3 -2.48738 4.67184 -1.5448
102 3 -8.74593 -4.72606 4.99419
103 3 9.30235 8.56474 7.67964
104 3 -7.51581 4.56101 -4.04277
105 3 1.25173 4.59389 4.97492
106 3 6.06895 -5.51073 -2.945
110 3 -7.17251 -2.36175 5.73901
111 3 3.03389 1.90754 1.89971
115 3 -1.27495 -3.84993 6.26214
116 3 3.53041 5.06692 -4.5742
117 3 -3.73088 -4.91706 -5.56771
118 3 -10.2602 0.967862 2.85117
119 3 7.59695 -8.11902 -3.8289
139 4 10.1659 -5.48153 4.32311
140 5 -45.7923 16.017 -10.5663
141 5 -9.96725 -14.5147 18.3491
143 4 -1.31304 3.77075 4.80346
144 5 -29.7177 -41.0173 22.5753
145 5 12.2937 -20.7333 -20.1797
150 4 6.71282 8.06264 4.67364
152 5 -10.6296 -25.2672 -24.2803
153 4 10.4457 0.171736 4.66163
154 5 -54.2738 -4.69755 -17.1508
155 5 -18.5057 20.8524 15.0621
156 4 0.99271 -14.6426 2.97066
157 4 -0.914725 -2.00363 9.29829
158 5 -22.8841 45.2383 29.5023
159 5 27.3212 11.9942 -33.3707
160 4 -2.62348 -6.79698 -10.9138
161 5 -13.2843 -24.8813 31.0058
162 5 16.3473 19.7119 7.51793
163 4 -1.48992 8.74234 1.70717
164 4 10.5371 -3.1206 8.86616
165 5 -37.3046 -19.97 2.4109
166 5 -15.3005 16.4595 -25.1964
170 4 3.26454 12.5143 -3.19876
172 5 -31.7 -37.2545 26.249
174 4 -2.4471 4.12006 -3.37397
175 5 -29.0748 18.1976 38.414
176 5 14.6752 -21.266 13.9386
177 4 17.4128 0.0291673 -6.38636
179 5 -52.4103 8.81463 8.01056
195 4 -6.98092 1.67943 -4.66047
196 5 49.0071 -15.4096 9.4213
197 5 6.81145 12.7157 -20.6962
199 4 1.33621 -6.61144 -5.32857
200 5 27.4491 37.6667 -29.1003
201 5 -8.89655 25.481 18.1158
206 4 -8.18509 -11.438 -3.84506
208 5 14.3442 24.4117 24.9408
209 4 -0.360694 8.0372 12.8205
210 5 51.2263 23.8686 -46.2552
211 5 -15.8132 -29.9828 -40.6676
212 4 -19.6076 3.79164 8.42895
213 4 1.57113 5.12933 -4.05971
214 5 64.7464 15.2572 -26.4432
215 5 27.6192 -32.0904 19.0262
218 5 10.8821 13.0803 -20.2508
219 4 -1.85484 -9.3981 5.30188
221 5 27.0311 39.5106 -26.2111
223 4 5.23106 -2.97476 8.11417
224 5 21.3954 -32.1767 -29.5494
225 5 -12.5542 8.74135 -32.8038
226 4 -6.8294 6.65935 -1.4492
228 5 50.5188 -13.3567 -0.0142499
244 6 9.40927 78.8258 -82.0301
245 6 43.6514 -85.3448 63.9836
246 6 -18.0918 -13.2208 10.7983
248 6 78.4201 -2.02359 -58.4297
249 6 4.64456 -15.7339 12.409
254 6 47.134 -41.4042 -86.5067
255 6 -15.2952 9.33867 11.8157
256 6 3.96586 -68.9737 -96.1334
257 6 57.0357 52.2333 65.0268
258 6 -6.89696 8.19643 13.6305
259 6 -59.2017 -67.8203 55.0315
260 6 38.7049 40.5319 -32.2986
261 6 5.8301 23.9551 18.7036
262 6 -89.6979 -63.5913 -55.7928
263 6 73.8489 51.3923 -1.79882
264 6 -12.2865 -18.6053 9.45565
265 6 5.69278 -73.4396 106.74
266 6 53.5749 70.3883 -99.311
267 6 -6.00687 -25.244 0.90627
271 6 -75.1266 73.3516 62.6137
274 6 -74.4801 79.8185 -52.8777
275 6 67.8204 -74.822 -6.77195
276 6 -15.7907 -0.350667 17.4183
277 6 11.2912 59.1032 104.716
279 6 -16.125 12.4999 9.27406
292 6 -6.89164 -74.9785 89.1073
293 6 -46.9551 81.6272 -67.6877
294 6 12.7756 14.626 -16.0593
296 6 -99.9286 13.4818 61.5452
297 6 -8.77617 11.479 -18.8097
302 6 -61.7399 51.9532 82.1478
303 6 18.2873 -5.12045 -11.6626
304 6 91.8167 63.6358 60.9642
305 6 -98.4086 -65.5222 18.088
306 6 -16.5227 4.28373 30.2097
307 6 -22.5375 83.6427 -86.4621
308 6 -80.7482 -58.4063 77.5036
309 6 -31.1533 10.6796 10.2909
311 6 -52.5346 89.8313 -65.546
313 6 73.025 -70.2155 -68.2464
316 6 85.3884 -84.6177 57.4242
317 6 -108.547 70.4477 11.1637
318 6 23.4211 10.4128 -14.338
319 6 7.95101 -60.8371 -113.074
321 6 20.298 -1.86871 -5.31276
334 7 -12.8612 -49.5495 2.99748
335 8 -46.322 -21.1858 -4.30785
336 9 159.481 152.519 -403.708
337 9 338.168 -27.7965 273.7
338 10 -520.753 -145.65 109.106
