Created on Thu Sep 21 18:36:29 2023 

           3 atoms
           2 bonds
           1 angles

           2 atom types
           1 bond types
           1 angle types
           0.000000  10.726800 xlo xhi
           0.000000  11.948498 ylo yhi
           0.000000  33.431263 zlo zhi
           0.218721  -1.722653  -0.577658 xy xz yz

Masses

    1     1.007940000 # H_
    2    15.999400000 # O_3

Bond Coeffs

    1       3000.000      1.00000    # H_1 O_2

Angle Coeffs

    1       harmonic      3000.0000      109.4700    # H_1 O_2 H_1

Pair Coeffs

    1      0.00000     0.00000 # H_1 H_1
    2      0.15530     3.16600 # O_2 O_2

Atoms

       1        1        1     0.42380    0.17683    7.46365   29.84409
       2        1        1     0.42380    0.47420    7.05474   31.31874
       3        1        2     -0.8476    0.89854    7.38375   30.49199

Bonds

       1        1        1        3
       2        1        2        3

Angles

       1        1        1        3        2
