Created on Thu Sep 21 18:36:31 2023 

         335 atoms
         395 bonds
         757 angles
         840 dihedrals
         363 impropers

           8 atom types
          10 bond types
          19 angle types
           4 dihedral types
           1 improper types
           0.000000  10.726800 xlo xhi
           0.000000  11.948498 ylo yhi
           0.000000  33.431263 zlo zhi
           0.218721  -1.722653  -0.577658 xy xz yz

Masses

    1    65.380000000 # Zn3f2
    2    65.380000000 # Zn2f2
    3     1.007940000 # H_
    4    12.010700000 # C_3
    5    12.010700000 # C_R
    6    14.006700000 # N_R
    7    15.999400000 # O_2
    8    15.999400000 # O_3

Bond Coeffs

    1      154.048673        1.928536  # Zn3f2 N_R
    2      122.127512        2.014866  # Zn3f2 O_2
    3      117.592048        2.040444  # Zn3f2 O_3
    4      140.566051        1.988323  # Zn2f2 N_R
    5      602.435128        0.966432  # H_ O_2
    6      331.069389        1.109401  # H_ C_3
    7      559.995206        0.990254  # H_ O_3
    8      369.943935        1.486000  # C_3 C_R
    9      663.718927        1.345073  # C_R N_R
   10      929.109299        1.322497  # N_R N_R

Angle Coeffs

    1                      fourier      183.483089        0.343737        0.374972        0.281246 # N_R Zn3f2 N_R
    2                      fourier      155.087435        0.343737        0.374972        0.281246 # N_R Zn3f2 O_2
    3                      fourier      152.018326        0.343737        0.374972        0.281246 # N_R Zn3f2 O_3
    4                      fourier      129.028673        0.343737        0.374972        0.281246 # O_2 Zn3f2 O_3
    5              cosine/periodic       65.768500              -1               3 # N_R Zn2f2 N_R
    6                      fourier       75.498766        0.343737        0.374972        0.281246 # H_ C_3 H_
    7                      fourier      121.777217        0.343737        0.374972        0.281246 # H_ C_3 C_R
    8              cosine/periodic      136.548728              -1               3 # C_3 C_R N_R
    9              cosine/periodic      212.442573              -1               3 # N_R C_R N_R
   10                      fourier      226.550294        0.343737        0.374972        0.281246 # C_R C_3 C_R
   11              cosine/periodic      163.738922              -1               3 # C_R N_R N_R
   12              cosine/periodic       43.714660              -1               3 # Zn3f2 N_R C_R
   13              cosine/periodic       59.154861              -1               3 # Zn3f2 N_R N_R
   14              cosine/periodic      120.000516              -1               3 # C_R N_R C_R
   15              cosine/periodic       41.111398              -1               3 # Zn2f2 N_R C_R
   16              cosine/periodic       55.595342              -1               3 # Zn2f2 N_R N_R
   17              cosine/periodic       16.707888              -1               3 # Zn3f2 O_2 Zn3f2
   18              cosine/periodic       19.130600              -1               3 # Zn3f2 O_2 H_
   19                      fourier       47.506677        0.300235        0.267331        0.266745 # Zn3f2 O_3 H_

Dihedral Coeffs

    1        0.833333              -1               2 # H_ C_3 C_R N_R
    2        6.737110              -1               2 # C_3 C_R N_R N_R
    3        3.368555              -1               2 # C_3 C_R N_R Zn3f2
    4        0.166667               1               3 # N_R C_R C_3 H_

Improper Coeffs

    1        2.000000        1.000000       -1.000000        0.000000               0 # C_3 C_R N_R N_R

Pair Coeffs

    1        0.124000        2.461553 # Zn3f2 Zn3f2
    2        0.124000        2.461553 # Zn2f2 Zn2f2
    3        0.044000        2.571134 # H_ H_
    4        0.105000        3.430851 # C_3 C_3
    5        0.105000        3.430851 # C_R C_R
    6        0.069000        3.260689 # N_R N_R
    7        0.060000        3.118146 # O_2 O_2
    8        0.060000        3.118146 # O_3 O_3

Atoms

       1      444        1     0.66246    6.85034    8.79404   16.09448
       2      444        1     0.66262    1.46713    8.81507   18.39054
       3      444        1     0.75465    1.56476    7.73244   24.32893
       4      444        1     0.67911    6.97515    8.46466   26.65174
       5      444        1     0.66574    6.21359    8.21661   32.69511
       6      444        1     0.66619    2.58394    8.84303    1.51745
       7      444        1     0.66425    2.02808    8.77651    7.62868
       8      444        1     0.66284    7.37110    8.82410    9.99160
       9      444        1     0.66549    3.17880    2.79755    0.48843
      10      444        1     0.67013    6.80032    2.12903   31.45380
      11      444        1     0.81492    1.33009    3.71372   23.91205
      12      444        1     0.66435    2.03806    2.81889   17.76504
      13      444        1     0.67012    7.37379    2.76412   15.18782
      14      444        1     0.66333    7.96054    2.87735    9.06388
      15      444        1     0.66426    2.59686    2.86430    6.60368
      16      444        2     0.82277    7.07033    2.70334   25.47563
      17      444        3     0.35834    0.66886    5.62607   25.11557
      18      444        3     0.14769    4.51532    5.55495   19.74384
      19      444        3     0.14026    3.36971    6.76193   20.39708
      20      444        3     0.13366    2.82015    5.56268   19.20659
      21      444        3     0.13002    4.36877   10.22527   15.51110
      22      444        3     0.13151    2.84058    9.35396   15.23630
      23      444        3     0.14705    0.02730    1.25589   19.23835
      24      444        3     0.14827    0.46896   11.58722   19.95412
      25      444        3     0.15074   -0.88236   -0.13288   18.60216
      26      444        3     0.13953    5.56266   10.35772   11.91189
      27      444        3     0.14790    4.77229    9.69897   13.35880
      28      444        3     0.15600    6.02448   10.94915   13.51760
      29      444        3     0.15121    9.94498    6.38860   14.09395
      30      444        3     0.12827    8.47547    5.79260   14.88293
      31      444        3     0.13600    9.52901    9.49210   19.60576
      32      444        3     0.15004    8.14858   10.01880   18.60216
      33      444        3     0.15728    8.04010    8.50836   19.51015
      34      444        3     0.15455   -0.29623   10.99799   28.43496
      35      444        3     0.13274    8.88662   10.15375   28.74353
      36      444        3     0.13737    8.70418   -0.39034   27.65936
      37      444        3     0.13678    9.64231    7.21209   23.45705
      38      444        3     0.13909    8.18561    8.24185   23.46908
      39      444        3     0.13687    5.84016    4.05860   27.33875
      40      444        3     0.14796    5.85123    5.73644   27.90441
      41      444        3     0.16441    4.75103    5.23172   26.59825
      42      444        3     0.13390   -0.22746    7.19030   20.11960
      43      444        3     0.14089    9.70459    7.90003   21.51703
      44      444        3     0.15225    0.02509    6.46075   21.71595
      45      444        3     0.14575    4.40528   10.64277   22.51529
      46      444        3     0.13884    3.00326   11.15632   23.45537
      47      444        3     0.13341    4.26389    7.36296   27.96826
      48      444        3     0.14737    3.04591    6.62451   26.88442
      49      444        3     0.15551    2.67130    8.12783   27.73023
      50      444        3     0.15153    5.61683    5.73415    3.08738
      51      444        3     0.13551    4.24419    6.80924    3.47652
      52      444        3     0.13764    4.02512    5.46403    2.33852
      53      444        3     0.12819    3.75744    9.50882   31.96998
      54      444        3     0.13481    2.23450    8.62824   31.71290
      55      444        3     0.14832    1.06249    1.32766    2.00153
      56      444        3     0.14235    1.47325   11.69343    2.79887
      57      444        3     0.15141    0.39359   11.86144    1.40110
      58      444        3     0.14591    5.13795    9.91932   28.48110
      59      444        3     0.14980    4.23567    9.18973   29.82370
      60      444        3     0.15547    5.45852   10.43794   30.14430
      61      444        3     0.15090    9.16815    5.61360   30.77448
      62      444        3     0.13035    7.63016    5.23702   31.56747
      63      444        3     0.13556   10.69640    9.58068    2.72365
      64      444        3     0.14981    9.30338   10.08852    1.73308
      65      444        3     0.15912    9.19368    8.61483    2.69891
      66      444        3     0.15067   -0.39836   -0.14571   11.50303
      67      444        3     0.13263    9.07975   10.84210   11.85071
      68      444        3     0.13644    8.78872    0.25782   10.71305
      69      444        3     0.13049   10.19792    7.41904    6.99917
      70      444        3     0.13256    8.70330    8.35489    6.75445
      71      444        3     0.14555    5.91574    4.43851   10.53854
      72      444        3     0.14475    6.22679    5.98721   11.36496
      73      444        3     0.15147    5.09562    5.91704    9.99762
      74      444        3     0.13871    0.77253    7.25159    3.41333
      75      444        3     0.14756   -0.03338    7.89874    4.85756
      76      444        3     0.15593    1.21558    6.64772    5.01703
      77      444        3     0.14924    5.16668   11.16066    5.66058
      78      444        3     0.12898    3.69740   11.78447    6.42248
      79      444        3     0.13536    4.63924    8.12482   11.20482
      80      444        3     0.14974    3.25954    7.62417   10.18851
      81      444        3     0.15890    3.17608    9.14298   11.08547
      82      444        3     0.15293    3.60816    5.20207   29.94605
      83      444        3     0.13106    4.98642    4.14747   29.50476
      84      444        3     0.13784    5.22026    5.50302   30.63240
      85      444        3     0.12985    5.69496    1.52313    1.13098
      86      444        3     0.13687    7.21169    2.44757    1.28409
      87      444        3     0.14683    8.38906    9.65668   31.13688
      88      444        3     0.14019    8.26417   11.27170   30.38668
      89      444        3     0.15531    9.28477   11.02705   31.81486
      90      444        3     0.14204    4.49617    1.38505    4.71715
      91      444        3     0.14769    5.27258    2.05946    3.26991
      92      444        3     0.15705    4.08023    0.74778    3.11646
      93      444        3     0.15240   10.64941    5.05782    2.41207
      94      444        3     0.12888    1.36712    5.73314    1.64515
      95      444        3     0.13251   -1.11916    1.33292   30.36695
      96      444        3     0.15124    0.22950    0.88075   31.44143
      97      444        3     0.16165    0.33858    2.35964   30.48530
      98      444        3     0.32190    0.46361    2.38920   25.63509
      99      444        3     0.14689    9.08608    3.36553   29.47902
     100      444        3     0.17161   -1.25209    3.03430   27.75831
     101      444        3     0.15544    8.32766    4.30572   28.18824
     102      444        3     0.15974    4.06067    0.16877   27.22843
     103      444        3     0.13093    5.36415   -0.28782   26.11717
     104      444        3     0.15268    3.96044    4.46476   22.57948
     105      444        3     0.15216    5.30425    4.97770   23.62454
     106      444        3     0.15204    5.56951    3.70146   22.42937
     107      444        3     0.15049    4.21218    5.90854   13.89871
     108      444        3     0.13204    5.49323    4.79092   13.34309
     109      444        3     0.13584    5.87632    6.08838   14.49947
     110      444        3     0.13366    4.62231    1.41850   18.31264
     111      444        3     0.13179    6.14826    2.32229   18.47111
     112      444        3     0.14711    8.87361   10.32180   14.52321
     113      444        3     0.13905    8.50509    0.01751   13.84689
     114      444        3     0.15256    9.81581   11.65601   15.21256
     115      444        3     0.14526    3.18747    1.67510   22.18131
     116      444        3     0.14103    4.02033    2.22240   20.70498
     117      444        3     0.15399    2.80061    0.93850   20.61004
     118      444        3     0.15298    9.48485    5.21541   19.41688
     119      444        3     0.12646    0.24513    5.79337   18.65531
     120      444        3     0.13326   -0.50442    1.93996   14.05149
     121      444        3     0.14940    0.80763    1.41584   15.14704
     122      444        3     0.15777    0.98677    2.90873   14.22500
     123      444        3     0.14948   10.12561   -0.04385    5.04812
     124      444        3     0.13058    0.94243    0.82251    4.79371
     125      444        3     0.13753    1.08453   11.38196    5.90229
     126      444        3     0.13231   -0.20830    4.22665    9.65428
     127      444        3     0.13446    1.28598    3.28425    9.86958
     128      444        3     0.14616    4.07897    7.22589    6.12494
     129      444        3     0.14033    3.89221    5.61047    5.39046
     130      444        3     0.15387    4.94073    5.83266    6.80460
     131      444        3     0.13955    9.35739    4.18182   13.30665
     132      444        3     0.14794   10.06052    3.54438   11.80558
     133      444        3     0.15644    8.91352    4.90263   11.74607
     134      444        3     0.15113    4.70476    0.60742   10.98351
     135      444        3     0.12797    6.15868   -0.07862   10.24802
     136      444        3     0.13296    5.41004    3.58549    5.42924
     137      444        3     0.14998    6.76570    4.08006    6.47931
     138      444        3     0.15678    6.86388    2.55862    5.58937
     139      444        4    -0.44908    3.66444    6.20072   19.49778
     140      444        5     0.38348    4.05096    7.11867   18.39455
     141      444        5     0.34313    3.97032    8.66596   16.90285
     142      444        4    -0.32585    3.50426    9.77728   16.01157
     143      444        4    -0.46090    0.08510    0.18570   19.01537
     144      444        5     0.33418    2.78389   10.87177   16.73703
     145      444        5     0.37743    1.18405   -0.08849   18.05255
     146      444        4    -0.47029    5.72737   10.05552   12.95060
     147      444        5     0.32648    8.21841    7.56723   13.71885
     148      444        5     0.36974    6.76726    8.99663   13.01345
     149      444        4    -0.32250    9.04209    6.70485   14.62818
     150      444        4    -0.47017    8.72876    9.15014   18.94149
     151      444        5     0.33619    9.44251    7.36236   15.90860
     152      444        5     0.38086    9.28284    8.40598   17.78042
     153      444        4    -0.45110   -1.24053   10.67155   27.98564
     154      444        5     0.37698   -0.96705    9.76733   26.84230
     155      444        5     0.33577    9.46983    8.48124   25.15268
     156      444        4    -0.33166    8.85834    7.62957   24.09324
     157      444        4    -0.47064    5.75726    5.10140   27.01781
     158      444        5     0.32874    8.11175    6.49487   24.69935
     159      444        5     0.36753    6.80091    5.44600   26.02156
     160      444        4    -0.48334   -0.09755    7.41272   21.18138
     161      444        5     0.33072    2.63765    9.53654   22.14420
     162      444        5     0.38220    1.05861    8.31755   21.34920
     163      444        4    -0.31310    3.54301   10.26668   23.07927
     164      444        4    -0.46937    3.48083    7.57100   27.23411
     165      444        5     0.34333    4.01940    9.51300   24.27377
     166      444        5     0.38851    3.99684    8.37001   26.09243
     167      444        4    -0.45221    4.73129    6.23409    2.67818
     168      444        5     0.38430    5.13666    7.12538    1.56191
     169      444        5     0.34573    5.06030    8.61046    0.00635
     170      444        4    -0.32383    2.88495    9.08825   32.48115
     171      444        4    -0.46156    1.12889    0.24890    1.83170
     172      444        5     0.33587    2.15921   10.21877   33.13372
     173      444        5     0.37545    2.47732   11.87029    0.92371
     174      444        4    -0.47025    5.21814    9.56988   29.51546
     175      444        5     0.32651    7.60823    7.00077   30.35559
     176      444        5     0.37159    6.25469    8.50908   29.61976
     177      444        4    -0.32129    8.30784    6.05987   31.28631
     178      444        4    -0.46934    9.87808    9.22301    2.09046
     179      444        5     0.33755    8.76015    6.72912   32.54433
     180      444        5     0.38159   10.39331    8.42842    0.94310
     181      444        4    -0.45025    9.63435   11.37798   11.06976
     182      444        5     0.38357    9.99296   10.46102    9.95850
     183      444        5     0.34495    9.85497    8.94859    8.43638
     184      444        4    -0.32549    9.35035    7.88233    7.51535
     185      444        4    -0.46128    6.04010    5.51583   10.39077
     186      444        5     0.33862    8.58620    6.79052    8.19701
     187      444        5     0.37487    7.15832    5.79253    9.45169
     188      444        4    -0.46749    0.92613    7.54675    4.45538
     189      444        5     0.32784    3.42631   10.01167    5.26776
     190      444        5     0.37046    1.96595    8.60447    4.53662
     191      444        4    -0.32073    4.25249   10.86054    6.18478
     192      444        4    -0.46852    3.85617    8.48181   10.52851
     193      444        5     0.33581    4.62761   10.21447    7.47857
     194      444        5     0.38246    4.43789    9.20494    9.36677
     195      444        4    -0.44602    4.51868    4.71749   30.31681
     196      444        5     0.37855    4.17282    3.82423   31.44979
     197      444        5     0.34616    4.31802    2.36885   33.02273
     198      444        4    -0.32935    6.54027    1.93644    0.57000
     199      444        4    -0.46232    8.33926   10.73134   31.33713
     200      444        5     0.34103    5.54766    0.21625   33.37978
     201      444        5     0.37218    7.18533   11.06520   32.20734
     202      444        4    -0.47070    4.33050    1.66335    3.67176
     203      444        5     0.32327    1.71085    3.98860    2.82427
     204      444        5     0.37100    3.23882    2.66697    3.57848
     205      444        4    -0.32113    0.84980    4.78996    1.89188
     206      444        4    -0.47104   -0.35808    1.72306   31.05062
     207      444        5     0.33564    0.50692    4.11497    0.60009
     208      444        5     0.38002   -0.97477    2.48745   32.16823
     209      444        4    -0.47661    8.67757    3.29937   28.46739
     210      444        5     0.33220    5.90349    1.14210   27.63595
     211      444        5     0.38126    7.55417    2.32715   28.41056
     212      444        4    -0.33019    4.91759    0.55795   26.66678
     213      444        4    -0.46608    4.83580    4.11066   23.13677
     214      444        5     0.33184    4.41639    1.55865   25.66384
     215      444        5     0.37676    4.41757    3.09092   24.13570
     216      444        4    -0.44844    5.11010    5.35843   14.20294
     217      444        5     0.38082    4.77234    4.45000   15.32924
     218      444        5     0.34551    4.92944    2.93407   16.84534
     219      444        4    -0.32542    5.45124    1.86042   17.74866
     220      444        4    -0.46125    8.84523   11.38726   14.77127
     221      444        5     0.33935    6.16025    0.75518   17.02955
     222      444        5     0.37278    7.52293   -0.26772   15.72239
     223      444        4    -0.46399    3.05807    1.88196   21.11452
     224      444        5     0.32097    0.50279    4.14285   19.97351
     225      444        5     0.37622    1.99150    2.89943   20.91059
     226      444        4    -0.32348   -0.30476    4.88441   18.95519
     227      444        4    -0.46515    0.25647    2.28389   14.76024
     228      444        5     0.33689   -0.62449    4.14855   17.70085
     229      444        5     0.38639   -0.36211    3.05340   15.87250
     230      444        4    -0.45003    0.31523    0.31062    5.53455
     231      444        5     0.38278   -0.03429    1.22631    6.65015
     232      444        5     0.34655    0.11995    2.71885    8.18932
     233      444        4    -0.32811    0.63269    3.76973    9.12205
     234      444        4    -0.46200    3.99916    6.15498    6.33690
     235      444        5     0.34254    1.39819    4.86763    8.45410
     236      444        5     0.37415    2.84869    5.87648    7.23486
     237      444        4    -0.46988    9.14778    3.95657   12.25657
     238      444        5     0.32305    6.48535    1.68564   11.39939
     239      444        5     0.37454    8.02377    2.99078   12.15962
     240      444        4    -0.32038    5.63821    0.86921   10.47167
     241      444        4    -0.46748    6.17276    3.22478    6.12695
     242      444        5     0.33581    5.30814    1.51466    9.16518
     243      444        5     0.38368    5.55434    2.50942    7.27498
     244      444        6    -0.30261    5.26343    7.15414   17.85597
     245      444        6    -0.25241    5.20114    8.14517   16.90051
     246      444        6    -0.41715    3.20769    8.03865   17.82354
     247      444        6    -0.28633    2.84968    0.21392   16.62804
     248      444        6    -0.27741    1.96559    0.83973   17.48188
     249      444        6    -0.43234    1.75163   10.63459   17.60156
     250      444        6    -0.29192    8.35954    7.58884   12.39932
     251      444        6    -0.27176    7.42666    8.50388   11.95502
     252      444        6    -0.44266    7.22828    8.41678   14.14711
     253      444        6    -0.29503   -0.05172    7.37829   16.39703
     254      444        6    -0.27788   -0.16373    8.04449   17.60323
     255      444        6    -0.41945    8.54603    7.98583   16.73134
     256      444        6    -0.30184    0.25201    9.44672   26.42273
     257      444        6    -0.26274    0.05454    8.61443   25.34157
     258      444        6    -0.43969    8.77161    9.18098   26.08374
     259      444        6    -0.23485    8.29711    5.21875   24.39613
     260      444        6    -0.28747    7.45998    4.55800   25.25364
     261      444        6    -0.42177    7.20035    6.68654   25.70095
     262      444        6    -0.30116    2.58977    9.82842   20.85208
     263      444        6    -0.27265    1.57597    9.04368   20.35195
     264      444        6    -0.44393    1.70903    8.58947   22.50526
     265      444        6    -0.31531    5.19141    9.75293   24.84745
     266      444        6    -0.29305    5.17375    9.02161   26.02022
     267      444        6    -0.42367    3.25332    8.63889   24.99756
     268      444        6    -0.30518    6.36034    7.16476    1.05308
     269      444        6    -0.25171    6.29987    8.11751    0.05884
     270      444        6    -0.42019    4.28820    8.00768    0.93842
     271      444        6    -0.29117    2.19747   -0.44880   32.90940
     272      444        6    -0.27931    3.02104    0.81213    0.27046
     273      444        6    -0.43313    2.85885   10.61493    0.59474
     274      444        6    -0.29528    7.89332    7.12366   29.06581
     275      444        6    -0.27579    7.01928    8.08708   28.60212
     276      444        6    -0.44698    6.59311    7.83661   30.74740
     277      444        6    -0.29486   -0.71473    6.77398   32.98362
     278      444        6    -0.28430    0.94069    8.06315    0.73616
     279      444        6    -0.42128    7.89628    7.38686   33.36875
     280      444        6    -0.30384    0.46801   10.41235    9.40020
     281      444        6    -0.25222    0.37027    9.44371    8.42401
     282      444        6    -0.41812    9.11976    9.56878    9.38683
     283      444        6    -0.29224    8.78481    5.49698    7.98272
     284      444        6    -0.27745    7.87003    4.86207    8.79677
     285      444        6    -0.43054    7.58586    7.02573    9.09932
     286      444        6    -0.29455    3.55150   10.03116    3.94656
     287      444        6    -0.27300    2.61180    9.13128    3.48521
     288      444        6    -0.44355    2.44084    9.14995    5.68231
     289      444        6    -0.29442    5.84460   10.23814    8.00378
     290      444        6    -0.28321    5.71511    9.59410    9.22135
     291      444        6    -0.41913    3.72235    9.58279    8.28594
     292      444        6    -0.30079    2.98076    3.81167   32.03150
     293      444        6    -0.24799    3.08284    2.87781   33.03911
     294      444        6    -0.42065    5.04745    2.93431   32.03083
     295      444        6    -0.28852    7.28424   11.47254    0.26578
     296      444        6    -0.27954    6.46883   10.19082   32.93280
     297      444        6    -0.43206    6.53746    0.37575   32.44738
     298      444        6    -0.28930    1.55565    3.98649    4.14280
     299      444        6    -0.26921    2.53867    3.14233    4.61987
     300      444        6    -0.44614    2.75918    3.19518    2.42544
     301      444        6    -0.29449   10.02234    4.09006    0.05717
     302      444        6    -0.28599    8.46290    2.84492   32.28725
     303      444        6    -0.41848   -0.28371    2.91989   33.24572
     304      444        6    -0.27552    5.79184    1.09651   28.95348
     305      444        6    -0.26917    6.84648    1.85175   29.44592
     306      444        6    -0.47735    7.00857    1.87027   27.24681
     307      444        6    -0.28115    3.14522    1.87461   25.46760
     308      444        6    -0.27197    3.15287    2.85100   24.48807
     309      444        6    -0.48572    5.25870    2.27790   24.84344
     310      444        6    -0.30275    3.59571    4.43990   15.94170
     311      444        6    -0.25374    3.70330    3.46802   16.91588
     312      444        6    -0.41911    5.64207    3.52811   15.85845
     313      444        6    -0.29082    6.15998   11.41372   17.24418
     314      444        6    -0.27705    7.03021   10.76311   16.39436
     315      444        6    -0.43081    7.13220    0.97264   16.08946
     316      444        6    -0.27131    0.33149    4.30145   21.27833
     317      444        6    -0.27952    1.29161    3.51872   21.87909
     318      444        6    -0.44768    1.53485    3.28488   19.68700
     319      444        6    -0.29823    8.90960    4.15756   17.12383
     320      444        6    -0.28844    9.08366    3.45793   15.94437
     321      444        6    -0.42014    0.31206    3.47718   16.96670
     322      444        6    -0.30301    9.49732    1.26610    7.22383
     323      444        6    -0.25085    9.60527    2.22128    8.21172
     324      444        6    -0.42070    0.84558    2.11416    7.21982
     325      444        6    -0.28888    1.22247    6.15754    8.70584
     326      444        6    -0.28058    2.15118    6.80032    7.91385
     327      444        6    -0.42983    2.39290    4.64192    7.54142
     328      444        6    -0.29144    6.32673    1.68713   12.71692
     329      444        6    -0.27199    7.31570    2.52189   13.19833
     330      444        6    -0.44575    7.53776    2.47499   11.00290
     331      444        6    -0.29411    4.10648    1.49196    8.60487
     332      444        6    -0.28618    4.27134    2.12538    7.38630
     333      444        6    -0.41900    6.23865    2.13560    8.37821
     334      444        7    -0.82619    1.35588    5.77268   24.43758
     335      444        8    -0.89464   -0.00475    3.07328   25.12192

Bonds

       1        1        1      245
       2        1        1      252
       3        1        1      255
       4        1        1      314
       5        1        2      246
       6        1        2      249
       7        1        2      254
       8        1        2      263
       9        1        3      257
      10        1        3      264
      11        1        3      267
      12        2        3      334
      13        1        4      258
      14        1        4      261
      15        1        4      266
      16        1        4      275
      17        1        5      269
      18        1        5      276
      19        1        5      279
      20        1        5      296
      21        1        6      270
      22        1        6      273
      23        1        6      278
      24        1        6      287
      25        1        7      281
      26        1        7      288
      27        1        7      291
      28        1        7      326
      29        1        8      251
      30        1        8      282
      31        1        8      285
      32        1        8      290
      33        1        9      272
      34        1        9      293
      35        1        9      300
      36        1        9      303
      37        1       10      294
      38        1       10      297
      39        1       10      302
      40        1       10      305
      41        1       11      308
      42        1       11      317
      43        2       11      334
      44        3       11      335
      45        1       12      248
      46        1       12      311
      47        1       12      318
      48        1       12      321
      49        1       13      312
      50        1       13      315
      51        1       13      320